    3
Geometry Step: 0
    O      0.00000529     -0.06851652      0.00000000      6.79947169
    H     -0.79069000      0.54370348      0.00000000      0.60026402
    H      0.79069000      0.54370348      0.00000000      0.60026429
